10
Properties=species:S:1:pos:R:3:mp2_forces:R:3:MACE_forces:R:3:forces:R:3 R1=H R2=H R3=CN R4=H leaving_group=Cl nucleophile=H rxn=e2 config=rcc address=reactant-complex-constrained-conformers/e2/A_A_C_A_B_A/07.xyz original_conf=7 label=H_H_CN_H_Cl_H_e2_rcc conformation=0 reactant_id=H_H_CN_H_Cl_none_-_r product_id=H_H_CN_H_none_none_e2_pc mp2_author_energy=-17177.6029915976 mp2_my_energy=0 mp2_energy=-17177.61270757931 _ConfigSet_loc=" / 27" hash=57937 transition_state_hash=31 MACE_energy=-17177.60015971137 id=27 energy=-17177.61270581702 free_energy=-17177.61270581702 pbc="F F F"
C       -0.35288508       0.00897863      -1.45968187      -0.59329806       0.08380281      -0.10392483      -0.00925509       0.00852209       0.00354720      -0.59327560       0.08380111      -0.10392859
C       -0.03005452       0.00186138      -0.00417944       0.17498580      -0.04576824       0.02020147      -1.44847707       0.12126905      -0.21714069       0.17499643      -0.04576587       0.02018097
Cl      -2.10731298       0.30406853      -1.76285015      -0.26806146       0.04115703      -0.17609097       0.00552915      -0.00267606      -0.00895101      -0.26807005       0.04115898      -0.17608828
H        1.09490200       0.00000000       0.00000000       0.75800787      -0.17431839       0.41463296       1.44371757      -0.19577521       0.34826270       0.75798926      -0.17431976       0.41463346
H       -0.12492964      -0.93770230      -1.93326101       0.16412191      -0.15788074      -0.03200235       0.00049023      -0.00373876       0.00653839       0.16411865      -0.15786948      -0.03199609
H        0.17825622       0.81092392      -1.95832453       0.20056058       0.09321525      -0.03232293       0.00058749       0.00008987       0.00229875       0.20055280       0.09320437      -0.03231584
H       -0.32499575       0.92245614       0.49179160      -0.16517590       0.16099657       0.03261278      -0.00401964      -0.00035298       0.00638825      -0.16517701       0.16099727       0.03261549
C       -0.53629799      -1.14538366       0.71510896      -0.20170533      -0.00129923      -0.03813317      -0.00679791      -0.00035218       0.00039854      -0.20170815      -0.00128437      -0.03814209
N       -0.95483172      -2.08008266       1.29013131       0.02146040      -0.07401833       0.05402214       0.00326888      -0.00168574       0.00083189       0.02146632      -0.07403513       0.05403576
H        2.78878376       0.00000000       0.00000000      -0.09089582       0.07411326      -0.13899510       0.01495639       0.07469990      -0.14217402      -0.09089264       0.07411289      -0.13899478
13
Properties=species:S:1:pos:R:3:mp2_forces:R:3:MACE_forces:R:3:forces:R:3 R1=H R2=H R3=CN R4=CH3 leaving_group=Cl nucleophile=H rxn=e2 config=rcc address=reactant-complex-constrained-conformers/e2/A_A_C_D_B_A/05.xyz original_conf=5 label=H_H_CN_CH3_Cl_H_e2_rcc conformation=0 reactant_id=H_H_CN_CH3_Cl_none_-_r product_id=H_H_CN_CH3_none_none_e2_pc mp2_author_energy=-18244.386758038898 mp2_my_energy=0 mp2_energy=-18244.396240147857 _ConfigSet_loc=" / 29" hash=58585 transition_state_hash=34 MACE_energy=-18244.392145395217 id=29 energy=-18244.396238398276 free_energy=-18244.396238398276 pbc="F F F"
C       -0.29523570       0.01188824      -1.47193162      -0.57623147       0.06866888      -0.04110446       0.00455540      -0.00204717       0.00628505      -0.57621243       0.06866964      -0.04110883
C       -0.03102906       0.00465475      -0.00186107       0.18850162      -0.03870696       0.00143881      -1.50562308       0.20593325      -0.14389974       0.18852146      -0.03870433       0.00142090
Cl      -2.05136076       0.18689447      -1.85675534      -0.28708544       0.03084519      -0.19163038      -0.00274415       0.00074616      -0.00818861      -0.28709528       0.03084534      -0.19162976
H        1.09794200       0.00000000       0.00000000       0.82812021      -0.31123891       0.31998668       1.50312489      -0.32921497       0.25061412       0.82809528      -0.31124223       0.31998591
H        0.02166869      -0.90798763      -1.94879678       0.17785949      -0.14549483      -0.00564802      -0.00307193      -0.00221471       0.00308826       0.17785467      -0.14548320      -0.00564154
H        0.19839908       0.85934282      -1.93458142       0.19853688       0.11263848      -0.02369207      -0.00641328      -0.00380429      -0.00378122       0.19852999       0.11262600      -0.02368430
C       -0.50037916      -1.20067857       0.64791997      -0.20328613       0.02411943      -0.03399665      -0.00094191      -0.00019864       0.00461577      -0.20328764       0.02414339      -0.03400797
N       -0.89707204      -2.16717793       1.18732009       0.03332055      -0.05816869       0.03493061       0.00447590      -0.00075488      -0.00981126       0.03332576      -0.05819204       0.03494513
C       -0.43283659       1.26231775       0.73857250      -0.18862236       0.13500450       0.03520402       0.00300910       0.00385069      -0.00062404      -0.18862122       0.13500350       0.03520304
H       -1.51665400       1.38965385       0.76144494      -0.06113873       0.10002549       0.04799002       0.00440764       0.00251689       0.00315203      -0.06113981       0.10002465       0.04798961
H        0.02277585       2.12665120       0.24641832      -0.00460892      -0.01497119      -0.00935891      -0.00247081      -0.00089223       0.00188628      -0.00461059      -0.01497088      -0.00935931
H       -0.05076657       1.23045794       1.76197313      -0.00005724      -0.03454614      -0.03218014       0.00007903      -0.00527039      -0.00671633      -0.00005697      -0.03454444      -0.03217371
H        2.74520820       0.00000000       0.00000000      -0.10530846       0.13182476      -0.10193950       0.00161318       0.13135029      -0.09662030      -0.10530321       0.13182461      -0.10193917
13
Properties=species:S:1:pos:R:3:mp2_forces:R:3:MACE_forces:R:3:forces:R:3 R1=H R2=H R3=CN R4=CH3 leaving_group=Br nucleophile=H rxn=e2 config=rcc address=reactant-complex-constrained-conformers/e2/A_A_C_D_C_A/03.xyz original_conf=3 label=H_H_CN_CH3_Br_H_e2_rcc conformation=6 reactant_id=H_H_CN_CH3_Br_none_-_r product_id=H_H_CN_CH3_none_none_e2_pc mp2_author_energy=-75747.36238590436 mp2_my_energy=0 mp2_energy=-75747.37818433666 _ConfigSet_loc=" / 31" hash=58651 transition_state_hash=36 MACE_energy=-75747.36987003263 id=31 energy=-75747.37818877454 free_energy=-75747.37818877454 pbc="F F F"
C       -0.30405806       0.02319299      -1.47524681      -0.00784757       0.00633083      -0.01737309       0.00381457       0.00181984      -0.01064738      -0.00785524       0.00633434      -0.01738068
C       -0.01562643       0.00207094      -0.00123961      -0.79671385       0.11099336      -0.11002625      -1.61147896       0.21192532      -0.13717531      -0.79672440       0.11100151      -0.11001044
Br      -2.20481883       0.21520807      -1.92958740      -0.21986044       0.02317343      -0.09159333       0.01120762       0.00102985      -0.00156301      -0.21986702       0.02317313      -0.09158824
H        1.09864600       0.00000000       0.00000000       1.23466239      -0.32684555       0.23105670       1.61248765      -0.32910318       0.23586805       1.23466857      -0.32685028       0.23104799
H        0.20028298       0.87355575      -1.93402667       0.03224411      -0.00469234       0.01682982      -0.01654452      -0.01801800       0.00433819       0.03225279      -0.00468665       0.01682902
H        0.02251210      -0.89537146      -1.95976483       0.03577925      -0.00690310       0.01989062      -0.00872716       0.00187887       0.00080119       0.03578358      -0.00690904       0.01989129
C       -0.49675859      -1.20516686       0.64062433      -0.10737303       0.00448811      -0.00388377       0.00934702      -0.01043269       0.01665238      -0.10739045       0.00449818      -0.00389122
N       -0.88811927      -2.17661621       1.17574824       0.01626877      -0.02761462       0.01351810       0.00278868       0.01139769      -0.02044028       0.01629161      -0.02762797       0.01352567
C       -0.42547513       1.25718221       0.74909723      -0.13191142       0.06949801       0.01929892      -0.00386332       0.00978438       0.00305078      -0.13191683       0.06949547       0.01929750
H       -1.51111320       1.38068601       0.78308624      -0.00364990       0.04948622       0.02931514       0.00924813       0.00282447       0.00097316      -0.00364619       0.04948134       0.02931137
H       -0.03309242       1.22077542       1.76818048       0.00035025      -0.01581009      -0.01412027       0.00057857      -0.00458747      -0.00983065       0.00035111      -0.01581061      -0.01411725
H        0.02060676       2.12617122       0.25618753       0.00054055      -0.01724796      -0.00096133      -0.00357916      -0.01089494       0.00553104       0.00054239      -0.01724275      -0.00096511
H        2.72682686       0.00000000       0.00000000      -0.05248914       0.13514370      -0.09195129      -0.00527910       0.13237589      -0.08755817      -0.05248991       0.13514332      -0.09194989
12
Properties=species:S:1:pos:R:3:mp2_forces:R:3:MACE_forces:R:3:forces:R:3 R1=H R2=H R3=CN R4=NH2 leaving_group=Cl nucleophile=F rxn=e2 config=rcc address=reactant-complex-constrained-conformers/e2/A_A_C_E_B_B/09.xyz original_conf=9 label=H_H_CN_NH2_Cl_F_e2_rcc conformation=9 reactant_id=H_H_CN_NH2_Cl_none_-_r product_id=H_H_CN_NH2_none_none_e2_pc mp2_author_energy=-21379.446714491492 mp2_my_energy=0 mp2_energy=-21379.467712068836 _ConfigSet_loc=" / 33" hash=58840 transition_state_hash=38 MACE_energy=-21379.45062701626 id=33 energy=-21379.46771081344 free_energy=-21379.46771081344 pbc="F F F"
C       -0.30939788      -0.07575200      -1.45684530      -0.58275498       0.06361354       0.01712493      -0.01165055       0.00833466       0.00135352      -0.58274940       0.06361507       0.01712169
C       -0.03954872       0.00588657       0.00106218       0.25956886      -0.03485903      -0.03197951      -1.92815213       0.25604039      -0.05571714       0.25956798      -0.03486049      -0.03199001
Cl      -2.08472492       0.00050804      -1.81343102      -0.39070971       0.01288395      -0.23962913       0.00181947       0.00196885      -0.00263487      -0.39071128       0.01288413      -0.23962783
H        1.10385600       0.00000000       0.00000000       1.15105432      -0.39474271       0.22466002       1.92015205      -0.40778012       0.14864992       1.15105499      -0.39474216       0.22466224
H        0.12385020       0.78544617      -1.94678196       0.21075396       0.13134470      -0.03568160       0.00188532      -0.00391232       0.00210816       0.21075234       0.13133939      -0.03567843
H        0.04020076      -1.00211944      -1.89599582       0.20201856      -0.14226635       0.01321547      -0.00010615      -0.01168766      -0.00379495       0.20201730      -0.14226139       0.01321798
C       -0.49859158      -1.15810483       0.73671384      -0.24212433      -0.00047419      -0.05432067       0.03496054      -0.04225228      -0.06841883      -0.24212676      -0.00046780      -0.05432338
N       -0.89607187      -2.08042208       1.34929507       0.02895010      -0.05972091       0.07790073      -0.01306330       0.02375732       0.03643620       0.02895218      -0.05972850       0.07790722
N       -0.40346300       1.28222527       0.57855427      -0.23821831       0.17841118       0.08285657      -0.00107712       0.00340623       0.02103498      -0.23821676       0.17840900       0.08285396
H        0.28288046       1.51579920       1.28694710      -0.01512659      -0.06518439      -0.05646439      -0.00979518      -0.00610405      -0.00851278      -0.01512421      -0.06518334      -0.05646203
H       -1.31554915       1.22882349       1.00994789      -0.11682929       0.13724921       0.07838196       0.00792575       0.00304839      -0.00868202      -0.11683156       0.13725091       0.07838366
F        2.55746232       0.00000000       0.00000000      -0.26658259       0.17374499      -0.07606438      -0.00289869       0.17518057      -0.06182219      -0.26658480       0.17374519      -0.07606507
12
Properties=species:S:1:pos:R:3:mp2_forces:R:3:MACE_forces:R:3:forces:R:3 R1=H R2=H R3=CN R4=NH2 leaving_group=Br nucleophile=H rxn=e2 config=rcc address=reactant-complex-constrained-conformers/e2/A_A_C_E_C_A/25.xyz original_conf=25 label=H_H_CN_NH2_Br_H_e2_rcc conformation=7 reactant_id=H_H_CN_NH2_Br_none_-_r product_id=H_H_CN_NH2_none_none_e2_pc mp2_author_energy=-76183.45664657872 mp2_my_energy=0 mp2_energy=-76183.4731052894 _ConfigSet_loc=" / 34" hash=58920 transition_state_hash=39 MACE_energy=-76183.4645532791 id=34 energy=-76183.4731079636 free_energy=-76183.4731079636 pbc="F F F"
C       -0.37852563       0.04693963      -1.45313224      -0.03330718       0.01442149      -0.00467213      -0.01246475       0.00247672       0.00051172      -0.03331417       0.01442441      -0.00467500
C       -0.01545617       0.00194031       0.00079323      -0.74920504       0.10662580       0.00776350      -1.58575173       0.19097237       0.06100794      -0.74921243       0.10665290       0.00778665
Br      -2.31386426       0.15422543      -1.76113467      -0.18400460       0.01310092      -0.06751054       0.00488290       0.00518873      -0.00012788      -0.18401225       0.01309938      -0.06750667
H        1.09703900       0.00000000       0.00000000       1.21922480      -0.34114580      -0.09683213       1.59131279      -0.33547034      -0.09259079       1.21921650      -0.34115380      -0.09684022
H       -0.03413262      -0.83792136      -1.98706050       0.03280076      -0.01046749       0.01956542       0.00246132      -0.00805895      -0.00208896       0.03280579      -0.01047571       0.01956149
H        0.04402399       0.94977513      -1.88839604       0.03101745       0.00665673       0.00800521       0.00215553       0.00269685      -0.00794683       0.03102361       0.00666082       0.00800423
C       -0.46576361      -1.22270219       0.65457482      -0.11755653      -0.02147799       0.02195505       0.00547564      -0.00320033       0.00094073      -0.11756569      -0.02145227       0.02193797
N       -0.83647585      -2.18667394       1.21809266       0.02080931      -0.01541063       0.00563699      -0.00062455      -0.00430529      -0.00227095       0.02082715      -0.01543935       0.00564830
N       -0.37685134       1.22055368       0.70287530      -0.16142423       0.08069561       0.05562311      -0.00554023       0.00700568      -0.01622381      -0.16141970       0.08067830       0.05561352
H       -1.26450619       1.11696860       1.17725613      -0.01094366       0.05927797       0.02882999      -0.00291267       0.00294849       0.01040804      -0.01094409       0.05927753       0.02882761
H        0.34833313       1.40844148       1.38805331       0.00659332      -0.02971380      -0.01762219       0.00698646       0.00101289       0.00766358       0.00659588      -0.02970945      -0.01761695
H        2.71166230       0.00000000       0.00000000      -0.05400434       0.13743718       0.03925769      -0.00598072       0.13873318       0.04071721      -0.05400060       0.13743724       0.03925906
13
Properties=species:S:1:pos:R:3:mp2_forces:R:3:MACE_forces:R:3:forces:R:3 R1=H R2=H R3=NH2 R4=NO2 leaving_group=Cl nucleophile=F rxn=e2 config=rcc address=reactant-complex-constrained-conformers/e2/A_A_E_B_B_B/25.xyz original_conf=25 label=H_H_NH2_NO2_Cl_F_e2_rcc conformation=12 reactant_id=H_H_NH2_NO2_Cl_none_-_r product_id=H_H_NH2_NO2_none_none_e2_pc mp2_author_energy=-24429.637699329025 mp2_my_energy=0 mp2_energy=-24429.665923004024 _ConfigSet_loc=" / 55" hash=59474 transition_state_hash=77 MACE_energy=-24429.634009116817 id=55 energy=-24429.66592160805 free_energy=-24429.66592160805 pbc="F F F"
C       -0.37752675      -0.02925442      -1.43777613      -0.63528345      -0.04830666       0.00764515      -0.00864540       0.00440216       0.01094611      -0.63527986      -0.04830560       0.00764106
C       -0.04592324      -0.00150880       0.00165864       0.43280079       0.20822874      -0.01678433      -2.23779300      -0.16150373      -0.01150298       0.43279768       0.20822386      -0.01677767
Cl      -2.17339866      -0.09467942      -1.67268377      -0.42187909      -0.02186259      -0.23259804       0.00288957       0.00305817      -0.00955357      -0.42187836      -0.02186229      -0.23259502
H        1.09385600       0.00000000       0.00000000       1.31121245       0.27823154       0.08908755       2.23467887       0.28277587       0.04047309       1.31121027       0.27823344       0.08908778
H       -0.04088714       0.85109163      -1.96219025       0.20540623       0.15411810      -0.01795830      -0.00192337       0.00526247       0.00637377       0.20540527       0.15411691      -0.01795658
H        0.00867277      -0.93903903      -1.87472004       0.20104367      -0.13358452      -0.02261419       0.00289733       0.00379041       0.00255287       0.20104297      -0.13358328      -0.02261365
N       -0.45751100      -1.13032642       0.74256400      -0.32408922      -0.18850817       0.11834728      -0.00762026       0.00156576      -0.00223178      -0.32408868      -0.18850944       0.11834573
H       -1.39978872      -0.99875082       1.08005805      -0.16866552      -0.13580159       0.13760743       0.01466072      -0.01384603      -0.00033466      -0.16866661      -0.13580125       0.13760721
H        0.15728183      -1.24618609       1.53846910      -0.01483259       0.06746328      -0.07937882      -0.00370179       0.00450690      -0.00039693      -0.01483104       0.06746268      -0.07937704
N       -0.42007133       1.31122254       0.60370532      -0.37421512      -0.00807348      -0.06611600      -0.00386575       0.01387875       0.01019110      -0.37419391      -0.00805348      -0.06616407
O       -0.84907220       1.31400761       1.76197586       0.05231727       0.02028580       0.08733676       0.02442976       0.00334859      -0.03519932       0.05230363       0.02028439       0.08736051
O       -0.25998911       2.33293324      -0.06637826       0.06421053      -0.06696246       0.00999174      -0.01424032      -0.01834278       0.00242953       0.06420459      -0.06697795       0.01000817
F        2.54479811       0.00000000       0.00000000      -0.32802595      -0.12522802      -0.01456622      -0.00176637      -0.12889655      -0.01374724      -0.32802594      -0.12522800      -0.01456644
12
Properties=species:S:1:pos:R:3:mp2_forces:R:3:MACE_forces:R:3:forces:R:3 R1=H R2=H R3=NH2 R4=CN leaving_group=Cl nucleophile=F rxn=e2 config=rcc address=reactant-complex-constrained-conformers/e2/A_A_E_C_B_B/08.xyz original_conf=8 label=H_H_NH2_CN_Cl_F_e2_rcc conformation=0 reactant_id=H_H_NH2_CN_Cl_none_-_r product_id=H_H_NH2_CN_none_none_e2_pc mp2_author_energy=-21379.445487421253 mp2_my_energy=0 mp2_energy=-21379.46737868209 _ConfigSet_loc=" / 60" hash=59669 transition_state_hash=82 MACE_energy=-21379.449467903236 id=60 energy=-21379.467377426205 free_energy=-21379.467377426205 pbc="F F F"
C       -0.31105529       0.03550663      -1.45795254      -0.59262207      -0.06544056       0.02995805      -0.00588509      -0.00729644       0.00123475      -0.59261567      -0.06544187       0.02995517
C       -0.04051493      -0.00602555       0.00126473       0.27807092       0.04000602      -0.03434170      -1.96757714      -0.26755196      -0.04540809       0.27807005       0.04000743      -0.03435231
Cl      -2.08727188      -0.05148339      -1.80866682      -0.39584244      -0.01984145      -0.24527940      -0.00071567      -0.00190828      -0.00393418      -0.39584442      -0.01984162      -0.24527812
H        1.10386200       0.00000000       0.00000000       1.14488654       0.40431752       0.20247297       1.92705909       0.42102854       0.12755166       1.14488721       0.40431679       0.20247486
H        0.03696232       0.94968902      -1.92304376       0.20286454       0.14316651       0.01001776      -0.00215534       0.00378937      -0.00020471       0.20286316       0.14316137       0.01002050
H        0.12156466      -0.83877066      -1.92458214       0.21194715      -0.13385551      -0.03359830      -0.00007697       0.00955093       0.00515493       0.21194546      -0.13385006      -0.03359522
N       -0.40050921      -1.26630270       0.61425532      -0.24780572      -0.17902506       0.09377485       0.00072512      -0.00442658       0.01275392      -0.24780475      -0.17902259       0.09377233
H        0.28624490      -1.47643018       1.32961262      -0.01908887       0.05863224      -0.05866702      -0.00714487      -0.00012455      -0.00247592      -0.01908630       0.05863124      -0.05866456
H       -1.31344914      -1.20479782       1.04287021      -0.11418151      -0.13382854       0.08305585       0.00176907       0.00005287      -0.00476192      -0.11418338      -0.13383026       0.08305742
C       -0.49303028       1.17983863       0.70532145      -0.19490337       0.01622365      -0.05102159       0.11327649       0.06216853      -0.07183434      -0.19490470       0.01621712      -0.05102447
N       -0.86544146       2.12837042       1.29318182      -0.00137564       0.04654286       0.07261078      -0.05780911      -0.03584345       0.03703903      -0.00137493       0.04655030       0.07261727
F        2.55635553       0.00000000       0.00000000      -0.27194953      -0.17689766      -0.06898224      -0.00146558      -0.17943897      -0.05511512      -0.27195174      -0.17689786      -0.06898289
12
Properties=species:S:1:pos:R:3:mp2_forces:R:3:MACE_forces:R:3:forces:R:3 R1=H R2=H R3=NH2 R4=CN leaving_group=Br nucleophile=H rxn=e2 config=rcc address=reactant-complex-constrained-conformers/e2/A_A_E_C_C_A/17.xyz original_conf=17 label=H_H_NH2_CN_Br_H_e2_rcc conformation=6 reactant_id=H_H_NH2_CN_Br_none_-_r product_id=H_H_NH2_CN_none_none_e2_pc mp2_author_energy=-76183.45657093107 mp2_my_energy=0 mp2_energy=-76183.47311060702 _ConfigSet_loc=" / 61" hash=59818 transition_state_hash=83 MACE_energy=-76183.46444164199 id=61 energy=-76183.47311375219 free_energy=-76183.47311375219 pbc="F F F"
C       -0.38064140      -0.03752771      -1.45310054      -0.02366133      -0.00955201      -0.00213937       0.00023016      -0.00690338       0.01149368      -0.02367046      -0.00955372      -0.00214353
C       -0.01549346      -0.00188640       0.00064878      -0.74892154      -0.09861765       0.00022917      -1.58927425      -0.18444252       0.05299223      -0.74892971      -0.09863669       0.00025314
Br      -2.31674191      -0.13675644      -1.75980878      -0.18218892      -0.01794926      -0.06530425      -0.00214412      -0.01046534      -0.00027139      -0.18219543      -0.01794798      -0.06529979
H        1.09706200       0.00000000       0.00000000       1.21853095       0.33488236      -0.10224247       1.58997972       0.32849046      -0.09476625       1.21852505       0.33488856      -0.10225017
H        0.03991454      -0.93819765      -1.89485305       0.02553151      -0.00840192       0.01036190      -0.00240935      -0.00229974      -0.00569934       0.02553855      -0.00840769       0.01036063
H       -0.03531584       0.84975813      -1.98190656       0.03724831       0.01749712       0.01679583       0.00898379       0.01919148      -0.00755049       0.03725361       0.01750425       0.01679306
N       -0.37713519      -1.22448771       0.69470034      -0.16530836      -0.08389655       0.04880282      -0.00025895      -0.00414968      -0.04454276      -0.16530587      -0.08388511       0.04879243
H        0.34323405      -1.41276324       1.38456993       0.00816656       0.02671670      -0.01313386       0.01966128      -0.00668314       0.02256785       0.00816956       0.02671335      -0.01312921
H       -1.26919444      -1.12618178       1.16151904      -0.01605493      -0.06106951       0.04019896      -0.02345655      -0.00169556       0.02724967      -0.01605434      -0.06106827       0.04019598
C       -0.46396953       1.21942344       0.66235849      -0.12266565       0.02314568       0.02289650       0.00458649      -0.00016337      -0.00050707      -0.12267700       0.02312515       0.02288303
N       -0.83276192       2.18054428       1.23202217       0.02189819       0.01294846       0.00491539      -0.00176452       0.00630497      -0.00071243       0.02191802       0.01297133       0.00492372
H        2.71124822       0.00000000       0.00000000      -0.05257477      -0.13570342       0.03861936      -0.00413369      -0.13718417       0.03974631      -0.05257197      -0.13570318       0.03862070
12
Properties=species:S:1:pos:R:3:mp2_forces:R:3:MACE_forces:R:3:forces:R:3 R1=H R2=H R3=NH2 R4=CN leaving_group=Br nucleophile=F rxn=e2 config=rcc address=reactant-complex-constrained-conformers/e2/A_A_E_C_C_B/14.xyz original_conf=14 label=H_H_NH2_CN_Br_F_e2_rcc conformation=6 reactant_id=H_H_NH2_CN_Br_none_-_r product_id=H_H_NH2_CN_none_none_e2_pc mp2_author_energy=-78882.41464556199 mp2_my_energy=0 mp2_energy=-78882.45962700665 _ConfigSet_loc=" / 62" hash=59799 transition_state_hash=84 MACE_energy=-78882.420815434 id=62 energy=-78882.45962507543 free_energy=-78882.45962507543 pbc="F F F"
C       -0.28009031      -0.06136685      -1.46946962      -0.23383102      -0.05972787      -0.05539433       0.00240596       0.00427412       0.00371639      -0.23383280      -0.05972926      -0.05540098
C       -0.05238249      -0.00596829      -0.00393891       0.37073149       0.04905568      -0.08463325      -2.23106904      -0.23318307      -0.16635368       0.37072941       0.04904887      -0.08463248
Br      -2.19651065      -0.19157363      -1.93293780      -0.32797834      -0.03138824      -0.21513850      -0.00970528      -0.00231561       0.00560019      -0.32797937      -0.03138771      -0.21513759
H        1.09708200       0.00000000       0.00000000       1.17407486       0.38848408       0.20981923       2.19613711       0.38704113       0.25504172       1.17405099       0.38848162       0.20982079
H        0.17773280      -0.96291123      -1.86611218       0.04922966      -0.02742091       0.01756396      -0.00246375      -0.00285357      -0.00418076       0.04923076      -0.02741900       0.01756714
H        0.08953524       0.82227171      -1.98455304       0.05607628       0.03668948       0.05275759      -0.00565667       0.00522856      -0.00369671       0.05607693       0.03668812       0.05275968
N       -0.41768456      -1.22162424       0.68513188      -0.33525820      -0.18492874       0.08187657      -0.00885819      -0.00206236       0.01731619      -0.33524803      -0.18491878       0.08187211
H        0.23388362      -1.37479123       1.44633528       0.00138526       0.08394699      -0.07974513      -0.00776561       0.00175599      -0.01004062       0.00138633       0.08394678      -0.07974336
H       -1.35143840      -1.13663798       1.06201576      -0.13052574      -0.16670031       0.12892903       0.02181100      -0.00408128       0.00312272      -0.13052860      -0.16670415       0.12892961
C       -0.50479295       1.22530463       0.61429436      -0.28947737      -0.02212588      -0.05977064       0.09094314       0.02051997      -0.04695348      -0.28947351      -0.02214465      -0.05978373
N       -0.89677513       2.20228344       1.13906802       0.02302515       0.10080632       0.08360781      -0.03938127      -0.01173905       0.02627359       0.02302965       0.10082642       0.08362095
F        2.54913112       0.00000000       0.00000000      -0.35745203      -0.16669058      -0.07987234      -0.00639739      -0.16258482      -0.07984556      -0.35744180      -0.16668826      -0.07987218
11
Properties=species:S:1:pos:R:3:mp2_forces:R:3:MACE_forces:R:3:forces:R:3 R1=H R2=NO2 R3=H R4=H leaving_group=Br nucleophile=F rxn=e2 config=rcc address=reactant-complex-constrained-conformers/e2/A_B_A_A_C_B/01.xyz original_conf=1 label=H_NO2_H_H_Br_F_e2_rcc conformation=0 reactant_id=H_NO2_H_H_Br_none_-_r product_id=H_NO2_H_H_none_none_e2_pc mp2_author_energy=-80428.95921072319 mp2_my_energy=0 mp2_energy=-80428.97587743416 _ConfigSet_loc=" / 77" hash=60144 transition_state_hash=107 MACE_energy=-80428.95786753636 id=77 energy=-80428.97588229267 free_energy=-80428.97588229267 pbc="F F F"
C       -0.31324241       0.03144479      -1.44547658       0.06070730      -0.02183650      -0.05142987       0.00961865      -0.00646166       0.01518903       0.06070188      -0.02182985      -0.05141547
C       -0.01712090       0.00116053      -0.00273482      -0.83062576       0.06475380      -0.25503590      -1.86707122       0.10419821      -0.33496219      -0.83064988       0.06475444      -0.25504541
Br      -2.21316599       0.23168733      -1.91748250      -0.47536413       0.05661332      -0.15271522       0.01378489       0.00763626       0.00421867      -0.47537222       0.05661507      -0.15271313
H        1.09335700       0.00000000       0.00000000       1.38234300      -0.20214114       0.58956840       1.87837405      -0.19572121       0.55366968       1.38234286      -0.20214236       0.58956828
H        0.19136959       0.83014385      -1.97932422       0.09119036       0.00041604       0.02166923      -0.00947842      -0.01629301       0.00591024       0.09120211       0.00042005       0.02166407
H       -0.42858622      -0.87776250       0.48223076      -0.12759255      -0.09366066       0.03157891       0.00254982       0.00558596      -0.00741529      -0.12759038      -0.09366437       0.03158269